s 0.000000000 _0_ AGT  --- 0 cbr 256 [0 0 0 0] ------- [0:0 39:0 32 0] [0] 0 0
r 0.000000000 _0_ RTR  --- 0 cbr 256 [0 0 0 0] ------- [0:0 39:0 32 0] [0] 0 0
s 0.000000000 _1_ AGT  --- 1 cbr 256 [0 0 0 0] ------- [1:0 38:0 32 0] [0] 0 0
r 0.000000000 _1_ RTR  --- 1 cbr 256 [0 0 0 0] ------- [1:0 38:0 32 0] [0] 0 0
s 0.000000000 _2_ AGT  --- 2 cbr 256 [0 0 0 0] ------- [2:0 37:0 32 0] [0] 0 0
r 0.000000000 _2_ RTR  --- 2 cbr 256 [0 0 0 0] ------- [2:0 37:0 32 0] [0] 0 0
s 0.000000000 _3_ AGT  --- 3 cbr 256 [0 0 0 0] ------- [3:0 36:0 32 0] [0] 0 0
r 0.000000000 _3_ RTR  --- 3 cbr 256 [0 0 0 0] ------- [3:0 36:0 32 0] [0] 0 0
s 0.000000000 _4_ AGT  --- 4 cbr 256 [0 0 0 0] ------- [4:0 35:0 32 0] [0] 0 0
r 0.000000000 _4_ RTR  --- 4 cbr 256 [0 0 0 0] ------- [4:0 35:0 32 0] [0] 0 0
s 0.000000000 _5_ AGT  --- 5 cbr 256 [0 0 0 0] ------- [5:0 34:0 32 0] [0] 0 0
r 0.000000000 _5_ RTR  --- 5 cbr 256 [0 0 0 0] ------- [5:0 34:0 32 0] [0] 0 0
s 0.000000000 _6_ AGT  --- 6 cbr 256 [0 0 0 0] ------- [6:0 33:0 32 0] [0] 0 0
r 0.000000000 _6_ RTR  --- 6 cbr 256 [0 0 0 0] ------- [6:0 33:0 32 0] [0] 0 0
s 0.000000000 _7_ AGT  --- 7 cbr 256 [0 0 0 0] ------- [7:0 32:0 32 0] [0] 0 0
r 0.000000000 _7_ RTR  --- 7 cbr 256 [0 0 0 0] ------- [7:0 32:0 32 0] [0] 0 0
s 0.000000000 _8_ AGT  --- 8 cbr 256 [0 0 0 0] ------- [8:0 31:0 32 0] [0] 0 0
r 0.000000000 _8_ RTR  --- 8 cbr 256 [0 0 0 0] ------- [8:0 31:0 32 0] [0] 0 0
s 0.000000000 _9_ AGT  --- 9 cbr 256 [0 0 0 0] ------- [9:0 30:0 32 0] [0] 0 0
r 0.000000000 _9_ RTR  --- 9 cbr 256 [0 0 0 0] ------- [9:0 30:0 32 0] [0] 0 0
s 0.000000000 _10_ AGT  --- 10 cbr 256 [0 0 0 0] ------- [10:0 29:0 32 0] [0] 0 0
r 0.000000000 _10_ RTR  --- 10 cbr 256 [0 0 0 0] ------- [10:0 29:0 32 0] [0] 0 0
s 0.000000000 _11_ AGT  --- 11 cbr 256 [0 0 0 0] ------- [11:0 28:0 32 0] [0] 0 0
r 0.000000000 _11_ RTR  --- 11 cbr 256 [0 0 0 0] ------- [11:0 28:0 32 0] [0] 0 0
s 0.000000000 _12_ AGT  --- 12 cbr 256 [0 0 0 0] ------- [12:0 27:0 32 0] [0] 0 0
r 0.000000000 _12_ RTR  --- 12 cbr 256 [0 0 0 0] ------- [12:0 27:0 32 0] [0] 0 0
s 0.000000000 _13_ AGT  --- 13 cbr 256 [0 0 0 0] ------- [13:0 26:0 32 0] [0] 0 0
r 0.000000000 _13_ RTR  --- 13 cbr 256 [0 0 0 0] ------- [13:0 26:0 32 0] [0] 0 0
s 0.000000000 _14_ AGT  --- 14 cbr 256 [0 0 0 0] ------- [14:0 25:0 32 0] [0] 0 0
r 0.000000000 _14_ RTR  --- 14 cbr 256 [0 0 0 0] ------- [14:0 25:0 32 0] [0] 0 0
s 0.000000000 _15_ AGT  --- 15 cbr 256 [0 0 0 0] ------- [15:0 24:0 32 0] [0] 0 0
r 0.000000000 _15_ RTR  --- 15 cbr 256 [0 0 0 0] ------- [15:0 24:0 32 0] [0] 0 0
s 0.000000000 _16_ AGT  --- 16 cbr 256 [0 0 0 0] ------- [16:0 23:0 32 0] [0] 0 0
r 0.000000000 _16_ RTR  --- 16 cbr 256 [0 0 0 0] ------- [16:0 23:0 32 0] [0] 0 0
s 0.000000000 _17_ AGT  --- 17 cbr 256 [0 0 0 0] ------- [17:0 22:0 32 0] [0] 0 0
r 0.000000000 _17_ RTR  --- 17 cbr 256 [0 0 0 0] ------- [17:0 22:0 32 0] [0] 0 0
s 0.000000000 _18_ AGT  --- 18 cbr 256 [0 0 0 0] ------- [18:0 21:0 32 0] [0] 0 0
r 0.000000000 _18_ RTR  --- 18 cbr 256 [0 0 0 0] ------- [18:0 21:0 32 0] [0] 0 0
s 0.000000000 _19_ AGT  --- 19 cbr 256 [0 0 0 0] ------- [19:0 20:0 32 0] [0] 0 0
r 0.000000000 _19_ RTR  --- 19 cbr 256 [0 0 0 0] ------- [19:0 20:0 32 0] [0] 0 0
s 0.000000000 _20_ AGT  --- 20 cbr 256 [0 0 0 0] ------- [20:1 19:1 32 0] [0] 0 0
r 0.000000000 _20_ RTR  --- 20 cbr 256 [0 0 0 0] ------- [20:1 19:1 32 0] [0] 0 0
s 0.000000000 _21_ AGT  --- 21 cbr 256 [0 0 0 0] ------- [21:1 18:1 32 0] [0] 0 0
r 0.000000000 _21_ RTR  --- 21 cbr 256 [0 0 0 0] ------- [21:1 18:1 32 0] [0] 0 0
s 0.000000000 _22_ AGT  --- 22 cbr 256 [0 0 0 0] ------- [22:1 17:1 32 0] [0] 0 0
r 0.000000000 _22_ RTR  --- 22 cbr 256 [0 0 0 0] ------- [22:1 17:1 32 0] [0] 0 0
s 0.000000000 _23_ AGT  --- 23 cbr 256 [0 0 0 0] ------- [23:1 16:1 32 0] [0] 0 0
r 0.000000000 _23_ RTR  --- 23 cbr 256 [0 0 0 0] ------- [23:1 16:1 32 0] [0] 0 0
s 0.000000000 _24_ AGT  --- 24 cbr 256 [0 0 0 0] ------- [24:1 15:1 32 0] [0] 0 0
r 0.000000000 _24_ RTR  --- 24 cbr 256 [0 0 0 0] ------- [24:1 15:1 32 0] [0] 0 0
s 0.000000000 _25_ AGT  --- 25 cbr 256 [0 0 0 0] ------- [25:1 14:1 32 0] [0] 0 0
r 0.000000000 _25_ RTR  --- 25 cbr 256 [0 0 0 0] ------- [25:1 14:1 32 0] [0] 0 0
s 0.000000000 _26_ AGT  --- 26 cbr 256 [0 0 0 0] ------- [26:1 13:1 32 0] [0] 0 0
r 0.000000000 _26_ RTR  --- 26 cbr 256 [0 0 0 0] ------- [26:1 13:1 32 0] [0] 0 0
s 0.000000000 _27_ AGT  --- 27 cbr 256 [0 0 0 0] ------- [27:1 12:1 32 0] [0] 0 0
r 0.000000000 _27_ RTR  --- 27 cbr 256 [0 0 0 0] ------- [27:1 12:1 32 0] [0] 0 0
s 0.000000000 _28_ AGT  --- 28 cbr 256 [0 0 0 0] ------- [28:1 11:1 32 0] [0] 0 0
r 0.000000000 _28_ RTR  --- 28 cbr 256 [0 0 0 0] ------- [28:1 11:1 32 0] [0] 0 0
s 0.000000000 _29_ AGT  --- 29 cbr 256 [0 0 0 0] ------- [29:1 10:1 32 0] [0] 0 0
r 0.000000000 _29_ RTR  --- 29 cbr 256 [0 0 0 0] ------- [29:1 10:1 32 0] [0] 0 0
s 0.000000000 _30_ AGT  --- 30 cbr 256 [0 0 0 0] ------- [30:1 9:1 32 0] [0] 0 0
r 0.000000000 _30_ RTR  --- 30 cbr 256 [0 0 0 0] ------- [30:1 9:1 32 0] [0] 0 0
s 0.000000000 _31_ AGT  --- 31 cbr 256 [0 0 0 0] ------- [31:1 8:1 32 0] [0] 0 0
r 0.000000000 _31_ RTR  --- 31 cbr 256 [0 0 0 0] ------- [31:1 8:1 32 0] [0] 0 0
s 0.000000000 _32_ AGT  --- 32 cbr 256 [0 0 0 0] ------- [32:1 7:1 32 0] [0] 0 0
r 0.000000000 _32_ RTR  --- 32 cbr 256 [0 0 0 0] ------- [32:1 7:1 32 0] [0] 0 0
s 0.000000000 _33_ AGT  --- 33 cbr 256 [0 0 0 0] ------- [33:1 6:1 32 0] [0] 0 0
r 0.000000000 _33_ RTR  --- 33 cbr 256 [0 0 0 0] ------- [33:1 6:1 32 0] [0] 0 0
s 0.000000000 _34_ AGT  --- 34 cbr 256 [0 0 0 0] ------- [34:1 5:1 32 0] [0] 0 0
r 0.000000000 _34_ RTR  --- 34 cbr 256 [0 0 0 0] ------- [34:1 5:1 32 0] [0] 0 0
s 0.000000000 _35_ AGT  --- 35 cbr 256 [0 0 0 0] ------- [35:1 4:1 32 0] [0] 0 0
r 0.000000000 _35_ RTR  --- 35 cbr 256 [0 0 0 0] ------- [35:1 4:1 32 0] [0] 0 0
s 0.000000000 _36_ AGT  --- 36 cbr 256 [0 0 0 0] ------- [36:1 3:1 32 0] [0] 0 0
r 0.000000000 _36_ RTR  --- 36 cbr 256 [0 0 0 0] ------- [36:1 3:1 32 0] [0] 0 0
s 0.000000000 _37_ AGT  --- 37 cbr 256 [0 0 0 0] ------- [37:1 2:1 32 0] [0] 0 0
r 0.000000000 _37_ RTR  --- 37 cbr 256 [0 0 0 0] ------- [37:1 2:1 32 0] [0] 0 0
s 0.000000000 _38_ AGT  --- 38 cbr 256 [0 0 0 0] ------- [38:1 1:1 32 0] [0] 0 0
r 0.000000000 _38_ RTR  --- 38 cbr 256 [0 0 0 0] ------- [38:1 1:1 32 0] [0] 0 0
s 0.000000000 _39_ AGT  --- 39 cbr 256 [0 0 0 0] ------- [39:1 0:1 32 0] [0] 0 0
r 0.000000000 _39_ RTR  --- 39 cbr 256 [0 0 0 0] ------- [39:1 0:1 32 0] [0] 0 0
s 0.000000000 _0_ RTR  --- 0 AODV 48 [0 0 0 0] ------- [0:255 -1:255 30 0] [0x2 1 1 [39 0] [0 4]] (REQUEST)
s 0.000000000 _1_ RTR  --- 0 AODV 48 [0 0 0 0] ------- [1:255 -1:255 30 0] [0x2 1 1 [38 0] [1 4]] (REQUEST)
s 0.000000000 _2_ RTR  --- 0 AODV 48 [0 0 0 0] ------- [2:255 -1:255 30 0] [0x2 1 1 [37 0] [2 4]] (REQUEST)
s 0.000000000 _3_ RTR  --- 0 AODV 48 [0 0 0 0] ------- [3:255 -1:255 30 0] [0x2 1 1 [36 0] [3 4]] (REQUEST)
s 0.000000000 _4_ RTR  --- 0 AODV 48 [0 0 0 0] ------- [4:255 -1:255 30 0] [0x2 1 1 [35 0] [4 4]] (REQUEST)
s 0.000000000 _5_ RTR  --- 0 AODV 48 [0 0 0 0] ------- [5:255 -1:255 30 0] [0x2 1 1 [34 0] [5 4]] (REQUEST)
s 0.000000000 _6_ RTR  --- 0 AODV 48 [0 0 0 0] ------- [6:255 -1:255 30 0] [0x2 1 1 [33 0] [6 4]] (REQUEST)
s 0.000000000 _7_ RTR  --- 0 AODV 48 [0 0 0 0] ------- [7:255 -1:255 30 0] [0x2 1 1 [32 0] [7 4]] (REQUEST)
s 0.000000000 _8_ RTR  --- 0 AODV 48 [0 0 0 0] ------- [8:255 -1:255 30 0] [0x2 1 1 [31 0] [8 4]] (REQUEST)
s 0.000000000 _9_ RTR  --- 0 AODV 48 [0 0 0 0] ------- [9:255 -1:255 30 0] [0x2 1 1 [30 0] [9 4]] (REQUEST)
s 0.000000000 _10_ RTR  --- 0 AODV 48 [0 0 0 0] ------- [10:255 -1:255 30 0] [0x2 1 1 [29 0] [10 4]] (REQUEST)
s 0.000000000 _11_ RTR  --- 0 AODV 48 [0 0 0 0] ------- [11:255 -1:255 30 0] [0x2 1 1 [28 0] [11 4]] (REQUEST)
s 0.000000000 _12_ RTR  --- 0 AODV 48 [0 0 0 0] ------- [12:255 -1:255 30 0] [0x2 1 1 [27 0] [12 4]] (REQUEST)
s 0.000000000 _13_ RTR  --- 0 AODV 48 [0 0 0 0] ------- [13:255 -1:255 30 0] [0x2 1 1 [26 0] [13 4]] (REQUEST)
s 0.000000000 _14_ RTR  --- 0 AODV 48 [0 0 0 0] ------- [14:255 -1:255 30 0] [0x2 1 1 [25 0] [14 4]] (REQUEST)
s 0.000000000 _15_ RTR  --- 0 AODV 48 [0 0 0 0] ------- [15:255 -1:255 30 0] [0x2 1 1 [24 0] [15 4]] (REQUEST)
s 0.000000000 _16_ RTR  --- 0 AODV 48 [0 0 0 0] ------- [16:255 -1:255 30 0] [0x2 1 1 [23 0] [16 4]] (REQUEST)
s 0.000000000 _17_ RTR  --- 0 AODV 48 [0 0 0 0] ------- [17:255 -1:255 30 0] [0x2 1 1 [22 0] [17 4]] (REQUEST)
s 0.000000000 _18_ RTR  --- 0 AODV 48 [0 0 0 0] ------- [18:255 -1:255 30 0] [0x2 1 1 [21 0] [18 4]] (REQUEST)
s 0.000000000 _19_ RTR  --- 0 AODV 48 [0 0 0 0] ------- [19:255 -1:255 30 0] [0x2 1 1 [20 0] [19 4]] (REQUEST)
s 0.000000000 _20_ RTR  --- 0 AODV 48 [0 0 0 0] ------- [20:255 -1:255 30 0] [0x2 1 1 [19 0] [20 4]] (REQUEST)
s 0.000000000 _21_ RTR  --- 0 AODV 48 [0 0 0 0] ------- [21:255 -1:255 30 0] [0x2 1 1 [18 0] [21 4]] (REQUEST)
s 0.000000000 _22_ RTR  --- 0 AODV 48 [0 0 0 0] ------- [22:255 -1:255 30 0] [0x2 1 1 [17 0] [22 4]] (REQUEST)
s 0.000000000 _23_ RTR  --- 0 AODV 48 [0 0 0 0] ------- [23:255 -1:255 30 0] [0x2 1 1 [16 0] [23 4]] (REQUEST)
s 0.000000000 _24_ RTR  --- 0 AODV 48 [0 0 0 0] ------- [24:255 -1:255 30 0] [0x2 1 1 [15 0] [24 4]] (REQUEST)
s 0.000000000 _25_ RTR  --- 0 AODV 48 [0 0 0 0] ------- [25:255 -1:255 30 0] [0x2 1 1 [14 0] [25 4]] (REQUEST)
s 0.000000000 _26_ RTR  --- 0 AODV 48 [0 0 0 0] ------- [26:255 -1:255 30 0] [0x2 1 1 [13 0] [26 4]] (REQUEST)
s 0.000000000 _27_ RTR  --- 0 AODV 48 [0 0 0 0] ------- [27:255 -1:255 30 0] [0x2 1 1 [12 0] [27 4]] (REQUEST)
s 0.000000000 _28_ RTR  --- 0 AODV 48 [0 0 0 0] ------- [28:255 -1:255 30 0] [0x2 1 1 [11 0] [28 4]] (REQUEST)
s 0.000000000 _29_ RTR  --- 0 AODV 48 [0 0 0 0] ------- [29:255 -1:255 30 0] [0x2 1 1 [10 0] [29 4]] (REQUEST)
s 0.000000000 _30_ RTR  --- 0 AODV 48 [0 0 0 0] ------- [30:255 -1:255 30 0] [0x2 1 1 [9 0] [30 4]] (REQUEST)
s 0.000000000 _31_ RTR  --- 0 AODV 48 [0 0 0 0] ------- [31:255 -1:255 30 0] [0x2 1 1 [8 0] [31 4]] (REQUEST)
s 0.000000000 _32_ RTR  --- 0 AODV 48 [0 0 0 0] ------- [32:255 -1:255 30 0] [0x2 1 1 [7 0] [32 4]] (REQUEST)
s 0.000000000 _33_ RTR  --- 0 AODV 48 [0 0 0 0] ------- [33:255 -1:255 30 0] [0x2 1 1 [6 0] [33 4]] (REQUEST)
s 0.000000000 _34_ RTR  --- 0 AODV 48 [0 0 0 0] ------- [34:255 -1:255 30 0] [0x2 1 1 [5 0] [34 4]] (REQUEST)
s 0.000000000 _35_ RTR  --- 0 AODV 48 [0 0 0 0] ------- [35:255 -1:255 30 0] [0x2 1 1 [4 0] [35 4]] (REQUEST)
s 0.000000000 _36_ RTR  --- 0 AODV 48 [0 0 0 0] ------- [36:255 -1:255 30 0] [0x2 1 1 [3 0] [36 4]] (REQUEST)
s 0.000000000 _37_ RTR  --- 0 AODV 48 [0 0 0 0] ------- [37:255 -1:255 30 0] [0x2 1 1 [2 0] [37 4]] (REQUEST)
s 0.000000000 _38_ RTR  --- 0 AODV 48 [0 0 0 0] ------- [38:255 -1:255 30 0] [0x2 1 1 [1 0] [38 4]] (REQUEST)
s 0.000000000 _39_ RTR  --- 0 AODV 48 [0 0 0 0] ------- [39:255 -1:255 30 0] [0x2 1 1 [0 0] [39 4]] (REQUEST)
r 0.000948013 _19_ RTR  --- 0 AODV 48 [0 ffffffff 5 800] ------- [5:255 -1:255 30 0] [0x2 1 1 [34 0] [5 4]] (REQUEST)
r 0.000948038 _18_ RTR  --- 0 AODV 48 [0 ffffffff 5 800] ------- [5:255 -1:255 30 0] [0x2 1 1 [34 0] [5 4]] (REQUEST)
r 0.000948047 _11_ RTR  --- 0 AODV 48 [0 ffffffff 5 800] ------- [5:255 -1:255 30 0] [0x2 1 1 [34 0] [5 4]] (REQUEST)
r 0.000948048 _31_ RTR  --- 0 AODV 48 [0 ffffffff 5 800] ------- [5:255 -1:255 30 0] [0x2 1 1 [34 0] [5 4]] (REQUEST)
r 0.000948057 _37_ RTR  --- 0 AODV 48 [0 ffffffff 5 800] ------- [5:255 -1:255 30 0] [0x2 1 1 [34 0] [5 4]] (REQUEST)
r 0.000948065 _21_ RTR  --- 0 AODV 48 [0 ffffffff 5 800] ------- [5:255 -1:255 30 0] [0x2 1 1 [34 0] [5 4]] (REQUEST)
r 0.000948079 _15_ RTR  --- 0 AODV 48 [0 ffffffff 5 800] ------- [5:255 -1:255 30 0] [0x2 1 1 [34 0] [5 4]] (REQUEST)
r 0.000948083 _7_ RTR  --- 0 AODV 48 [0 ffffffff 5 800] ------- [5:255 -1:255 30 0] [0x2 1 1 [34 0] [5 4]] (REQUEST)
r 0.000948109 _26_ RTR  --- 0 AODV 48 [0 ffffffff 5 800] ------- [5:255 -1:255 30 0] [0x2 1 1 [34 0] [5 4]] (REQUEST)
r 0.000948134 _36_ RTR  --- 0 AODV 48 [0 ffffffff 5 800] ------- [5:255 -1:255 30 0] [0x2 1 1 [34 0] [5 4]] (REQUEST)
r 0.000948152 _29_ RTR  --- 0 AODV 48 [0 ffffffff 5 800] ------- [5:255 -1:255 30 0] [0x2 1 1 [34 0] [5 4]] (REQUEST)
r 0.000948164 _22_ RTR  --- 0 AODV 48 [0 ffffffff 5 800] ------- [5:255 -1:255 30 0] [0x2 1 1 [34 0] [5 4]] (REQUEST)
r 0.000948165 _1_ RTR  --- 0 AODV 48 [0 ffffffff 5 800] ------- [5:255 -1:255 30 0] [0x2 1 1 [34 0] [5 4]] (REQUEST)
r 0.000948176 _3_ RTR  --- 0 AODV 48 [0 ffffffff 5 800] ------- [5:255 -1:255 30 0] [0x2 1 1 [34 0] [5 4]] (REQUEST)
r 0.000948188 _34_ RTR  --- 0 AODV 48 [0 ffffffff 5 800] ------- [5:255 -1:255 30 0] [0x2 1 1 [34 0] [5 4]] (REQUEST)
s 0.000948188 _34_ RTR  --- 34 cbr 276 [0 0 0 0] ------- [34:1 5:1 30 5] [0] 0 0
s 0.000948188 _34_ RTR  --- 0 AODV 44 [0 0 0 0] ------- [34:255 5:255 30 5] [0x4 1 [34 6] 10.000000] (REPLY)
D 0.000948188 _34_ IFQ  ARP 34 cbr 276 [0 0 22 800] ------- [34:1 5:1 30 5] [0] 0 0
r 0.000948191 _33_ RTR  --- 0 AODV 48 [0 ffffffff 5 800] ------- [5:255 -1:255 30 0] [0x2 1 1 [34 0] [5 4]] (REQUEST)
r 0.000948201 _4_ RTR  --- 0 AODV 48 [0 ffffffff 5 800] ------- [5:255 -1:255 30 0] [0x2 1 1 [34 0] [5 4]] (REQUEST)
r 0.000948210 _0_ RTR  --- 0 AODV 48 [0 ffffffff 5 800] ------- [5:255 -1:255 30 0] [0x2 1 1 [34 0] [5 4]] (REQUEST)
r 0.000948213 _6_ RTR  --- 0 AODV 48 [0 ffffffff 5 800] ------- [5:255 -1:255 30 0] [0x2 1 1 [34 0] [5 4]] (REQUEST)
r 0.000948229 _8_ RTR  --- 0 AODV 48 [0 ffffffff 5 800] ------- [5:255 -1:255 30 0] [0x2 1 1 [34 0] [5 4]] (REQUEST)
r 0.000948234 _28_ RTR  --- 0 AODV 48 [0 ffffffff 5 800] ------- [5:255 -1:255 30 0] [0x2 1 1 [34 0] [5 4]] (REQUEST)
r 0.000948237 _25_ RTR  --- 0 AODV 48 [0 ffffffff 5 800] ------- [5:255 -1:255 30 0] [0x2 1 1 [34 0] [5 4]] (REQUEST)
r 0.000948238 _2_ RTR  --- 0 AODV 48 [0 ffffffff 5 800] ------- [5:255 -1:255 30 0] [0x2 1 1 [34 0] [5 4]] (REQUEST)
r 0.000948250 _10_ RTR  --- 0 AODV 48 [0 ffffffff 5 800] ------- [5:255 -1:255 30 0] [0x2 1 1 [34 0] [5 4]] (REQUEST)
r 0.000948253 _16_ RTR  --- 0 AODV 48 [0 ffffffff 5 800] ------- [5:255 -1:255 30 0] [0x2 1 1 [34 0] [5 4]] (REQUEST)
r 0.000948254 _32_ RTR  --- 0 AODV 48 [0 ffffffff 5 800] ------- [5:255 -1:255 30 0] [0x2 1 1 [34 0] [5 4]] (REQUEST)
r 0.000948257 _14_ RTR  --- 0 AODV 48 [0 ffffffff 5 800] ------- [5:255 -1:255 30 0] [0x2 1 1 [34 0] [5 4]] (REQUEST)
r 0.000948257 _27_ RTR  --- 0 AODV 48 [0 ffffffff 5 800] ------- [5:255 -1:255 30 0] [0x2 1 1 [34 0] [5 4]] (REQUEST)
r 0.000948258 _30_ RTR  --- 0 AODV 48 [0 ffffffff 5 800] ------- [5:255 -1:255 30 0] [0x2 1 1 [34 0] [5 4]] (REQUEST)
r 0.000948261 _38_ RTR  --- 0 AODV 48 [0 ffffffff 5 800] ------- [5:255 -1:255 30 0] [0x2 1 1 [34 0] [5 4]] (REQUEST)
r 0.000948264 _35_ RTR  --- 0 AODV 48 [0 ffffffff 5 800] ------- [5:255 -1:255 30 0] [0x2 1 1 [34 0] [5 4]] (REQUEST)
r 0.000948274 _20_ RTR  --- 0 AODV 48 [0 ffffffff 5 800] ------- [5:255 -1:255 30 0] [0x2 1 1 [34 0] [5 4]] (REQUEST)
r 0.000948281 _13_ RTR  --- 0 AODV 48 [0 ffffffff 5 800] ------- [5:255 -1:255 30 0] [0x2 1 1 [34 0] [5 4]] (REQUEST)
r 0.000948283 _12_ RTR  --- 0 AODV 48 [0 ffffffff 5 800] ------- [5:255 -1:255 30 0] [0x2 1 1 [34 0] [5 4]] (REQUEST)
r 0.000948284 _39_ RTR  --- 0 AODV 48 [0 ffffffff 5 800] ------- [5:255 -1:255 30 0] [0x2 1 1 [34 0] [5 4]] (REQUEST)
r 0.000948301 _17_ RTR  --- 0 AODV 48 [0 ffffffff 5 800] ------- [5:255 -1:255 30 0] [0x2 1 1 [34 0] [5 4]] (REQUEST)
r 0.000948305 _9_ RTR  --- 0 AODV 48 [0 ffffffff 5 800] ------- [5:255 -1:255 30 0] [0x2 1 1 [34 0] [5 4]] (REQUEST)
r 0.000948311 _24_ RTR  --- 0 AODV 48 [0 ffffffff 5 800] ------- [5:255 -1:255 30 0] [0x2 1 1 [34 0] [5 4]] (REQUEST)
r 0.000948339 _23_ RTR  --- 0 AODV 48 [0 ffffffff 5 800] ------- [5:255 -1:255 30 0] [0x2 1 1 [34 0] [5 4]] (REQUEST)
s 0.001056131 _31_ RTR  --- 0 AODV 48 [0 ffffffff 5 800] ------- [31:255 -1:255 29 0] [0x2 2 1 [34 0] [5 4]] (REQUEST)
s 0.001223776 _4_ RTR  --- 0 AODV 48 [0 ffffffff 5 800] ------- [4:255 -1:255 29 0] [0x2 2 1 [34 0] [5 4]] (REQUEST)
s 0.001449592 _30_ RTR  --- 0 AODV 48 [0 ffffffff 5 800] ------- [30:255 -1:255 29 0] [0x2 2 1 [34 0] [5 4]] (REQUEST)
s 0.001532073 _11_ RTR  --- 0 AODV 48 [0 ffffffff 5 800] ------- [11:255 -1:255 29 0] [0x2 2 1 [34 0] [5 4]] (REQUEST)
s 0.001830285 _12_ RTR  --- 0 AODV 48 [0 ffffffff 5 800] ------- [12:255 -1:255 29 0] [0x2 2 1 [34 0] [5 4]] (REQUEST)
s 0.001861826 _14_ RTR  --- 0 AODV 48 [0 ffffffff 5 800] ------- [14:255 -1:255 29 0] [0x2 2 1 [34 0] [5 4]] (REQUEST)
r 0.001866374 _9_ RTR  --- 0 AODV 48 [0 ffffffff 17 800] ------- [23:255 -1:255 30 0] [0x2 1 1 [16 0] [23 4]] (REQUEST)
r 0.001866432 _38_ RTR  --- 0 AODV 48 [0 ffffffff 17 800] ------- [23:255 -1:255 30 0] [0x2 1 1 [16 0] [23 4]] (REQUEST)
r 0.001866436 _32_ RTR  --- 0 AODV 48 [0 ffffffff 17 800] ------- [23:255 -1:255 30 0] [0x2 1 1 [16 0] [23 4]] (REQUEST)
r 0.001866442 _25_ RTR  --- 0 AODV 48 [0 ffffffff 17 800] ------- [23:255 -1:255 30 0] [0x2 1 1 [16 0] [23 4]] (REQUEST)
r 0.001866452 _10_ RTR  --- 0 AODV 48 [0 ffffffff 17 800] ------- [23:255 -1:255 30 0] [0x2 1 1 [16 0] [23 4]] (REQUEST)
r 0.001866467 _20_ RTR  --- 0 AODV 48 [0 ffffffff 17 800] ------- [23:255 -1:255 30 0] [0x2 1 1 [16 0] [23 4]] (REQUEST)
r 0.001866468 _24_ RTR  --- 0 AODV 48 [0 ffffffff 17 800] ------- [23:255 -1:255 30 0] [0x2 1 1 [16 0] [23 4]] (REQUEST)
r 0.001866475 _30_ RTR  --- 0 AODV 48 [0 ffffffff 17 800] ------- [23:255 -1:255 30 0] [0x2 1 1 [16 0] [23 4]] (REQUEST)
r 0.001866476 _17_ RTR  --- 0 AODV 48 [0 ffffffff 17 800] ------- [23:255 -1:255 30 0] [0x2 1 1 [16 0] [23 4]] (REQUEST)
r 0.001866476 _16_ RTR  --- 0 AODV 48 [0 ffffffff 17 800] ------- [23:255 -1:255 30 0] [0x2 1 1 [16 0] [23 4]] (REQUEST)
s 0.001866476 _16_ RTR  --- 16 cbr 276 [0 0 0 0] ------- [16:0 23:0 30 23] [0] 0 0
s 0.001866476 _16_ RTR  --- 0 AODV 44 [0 0 0 0] ------- [16:255 23:255 30 23] [0x4 1 [16 6] 10.000000] (REPLY)
D 0.001866476 _16_ IFQ  ARP 16 cbr 276 [0 0 10 800] ------- [16:0 23:0 30 23] [0] 0 0
r 0.001866477 _6_ RTR  --- 0 AODV 48 [0 ffffffff 17 800] ------- [23:255 -1:255 30 0] [0x2 1 1 [16 0] [23 4]] (REQUEST)
r 0.001866492 _27_ RTR  --- 0 AODV 48 [0 ffffffff 17 800] ------- [23:255 -1:255 30 0] [0x2 1 1 [16 0] [23 4]] (REQUEST)
r 0.001866504 _12_ RTR  --- 0 AODV 48 [0 ffffffff 17 800] ------- [23:255 -1:255 30 0] [0x2 1 1 [16 0] [23 4]] (REQUEST)
r 0.001866506 _3_ RTR  --- 0 AODV 48 [0 ffffffff 17 800] ------- [23:255 -1:255 30 0] [0x2 1 1 [16 0] [23 4]] (REQUEST)
r 0.001866508 _39_ RTR  --- 0 AODV 48 [0 ffffffff 17 800] ------- [23:255 -1:255 30 0] [0x2 1 1 [16 0] [23 4]] (REQUEST)
r 0.001866512 _14_ RTR  --- 0 AODV 48 [0 ffffffff 17 800] ------- [23:255 -1:255 30 0] [0x2 1 1 [16 0] [23 4]] (REQUEST)
r 0.001866514 _13_ RTR  --- 0 AODV 48 [0 ffffffff 17 800] ------- [23:255 -1:255 30 0] [0x2 1 1 [16 0] [23 4]] (REQUEST)
r 0.001866514 _2_ RTR  --- 0 AODV 48 [0 ffffffff 17 800] ------- [23:255 -1:255 30 0] [0x2 1 1 [16 0] [23 4]] (REQUEST)
r 0.001866521 _35_ RTR  --- 0 AODV 48 [0 ffffffff 17 800] ------- [23:255 -1:255 30 0] [0x2 1 1 [16 0] [23 4]] (REQUEST)
r 0.001866522 _28_ RTR  --- 0 AODV 48 [0 ffffffff 17 800] ------- [23:255 -1:255 30 0] [0x2 1 1 [16 0] [23 4]] (REQUEST)
r 0.001866524 _0_ RTR  --- 0 AODV 48 [0 ffffffff 17 800] ------- [23:255 -1:255 30 0] [0x2 1 1 [16 0] [23 4]] (REQUEST)
r 0.001866524 _33_ RTR  --- 0 AODV 48 [0 ffffffff 17 800] ------- [23:255 -1:255 30 0] [0x2 1 1 [16 0] [23 4]] (REQUEST)
r 0.001866527 _8_ RTR  --- 0 AODV 48 [0 ffffffff 17 800] ------- [23:255 -1:255 30 0] [0x2 1 1 [16 0] [23 4]] (REQUEST)
r 0.001866528 _34_ RTR  --- 0 AODV 48 [0 ffffffff 17 800] ------- [23:255 -1:255 30 0] [0x2 1 1 [16 0] [23 4]] (REQUEST)
r 0.001866535 _4_ RTR  --- 0 AODV 48 [0 ffffffff 17 800] ------- [23:255 -1:255 30 0] [0x2 1 1 [16 0] [23 4]] (REQUEST)
r 0.001866539 _29_ RTR  --- 0 AODV 48 [0 ffffffff 17 800] ------- [23:255 -1:255 30 0] [0x2 1 1 [16 0] [23 4]] (REQUEST)
r 0.001866549 _1_ RTR  --- 0 AODV 48 [0 ffffffff 17 800] ------- [23:255 -1:255 30 0] [0x2 1 1 [16 0] [23 4]] (REQUEST)
r 0.001866554 _36_ RTR  --- 0 AODV 48 [0 ffffffff 17 800] ------- [23:255 -1:255 30 0] [0x2 1 1 [16 0] [23 4]] (REQUEST)
r 0.001866557 _22_ RTR  --- 0 AODV 48 [0 ffffffff 17 800] ------- [23:255 -1:255 30 0] [0x2 1 1 [16 0] [23 4]] (REQUEST)
r 0.001866594 _26_ RTR  --- 0 AODV 48 [0 ffffffff 17 800] ------- [23:255 -1:255 30 0] [0x2 1 1 [16 0] [23 4]] (REQUEST)
r 0.001866595 _7_ RTR  --- 0 AODV 48 [0 ffffffff 17 800] ------- [23:255 -1:255 30 0] [0x2 1 1 [16 0] [23 4]] (REQUEST)
r 0.001866611 _15_ RTR  --- 0 AODV 48 [0 ffffffff 17 800] ------- [23:255 -1:255 30 0] [0x2 1 1 [16 0] [23 4]] (REQUEST)
r 0.001866627 _37_ RTR  --- 0 AODV 48 [0 ffffffff 17 800] ------- [23:255 -1:255 30 0] [0x2 1 1 [16 0] [23 4]] (REQUEST)
r 0.001866632 _21_ RTR  --- 0 AODV 48 [0 ffffffff 17 800] ------- [23:255 -1:255 30 0] [0x2 1 1 [16 0] [23 4]] (REQUEST)
r 0.001866633 _11_ RTR  --- 0 AODV 48 [0 ffffffff 17 800] ------- [23:255 -1:255 30 0] [0x2 1 1 [16 0] [23 4]] (REQUEST)
r 0.001866638 _31_ RTR  --- 0 AODV 48 [0 ffffffff 17 800] ------- [23:255 -1:255 30 0] [0x2 1 1 [16 0] [23 4]] (REQUEST)
r 0.001866647 _18_ RTR  --- 0 AODV 48 [0 ffffffff 17 800] ------- [23:255 -1:255 30 0] [0x2 1 1 [16 0] [23 4]] (REQUEST)
r 0.001866678 _5_ RTR  --- 0 AODV 48 [0 ffffffff 17 800] ------- [23:255 -1:255 30 0] [0x2 1 1 [16 0] [23 4]] (REQUEST)
r 0.001866686 _19_ RTR  --- 0 AODV 48 [0 ffffffff 17 800] ------- [23:255 -1:255 30 0] [0x2 1 1 [16 0] [23 4]] (REQUEST)
s 0.001868237 _27_ RTR  --- 0 AODV 48 [0 ffffffff 17 800] ------- [27:255 -1:255 29 0] [0x2 2 1 [16 0] [23 4]] (REQUEST)
s 0.001900025 _28_ RTR  --- 0 AODV 48 [0 ffffffff 17 800] ------- [28:255 -1:255 29 0] [0x2 2 1 [16 0] [23 4]] (REQUEST)
s 0.002026599 _37_ RTR  --- 0 AODV 48 [0 ffffffff 17 800] ------- [37:255 -1:255 29 0] [0x2 2 1 [16 0] [23 4]] (REQUEST)
s 0.002068351 _18_ RTR  --- 0 AODV 48 [0 ffffffff 5 800] ------- [18:255 -1:255 29 0] [0x2 2 1 [34 0] [5 4]] (REQUEST)
s 0.002179114 _15_ RTR  --- 0 AODV 48 [0 ffffffff 5 800] ------- [15:255 -1:255 29 0] [0x2 2 1 [34 0] [5 4]] (REQUEST)
s 0.002185954 _29_ RTR  --- 0 AODV 48 [0 ffffffff 17 800] ------- [29:255 -1:255 29 0] [0x2 2 1 [16 0] [23 4]] (REQUEST)
s 0.002194437 _13_ RTR  --- 0 AODV 48 [0 ffffffff 17 800] ------- [13:255 -1:255 29 0] [0x2 2 1 [16 0] [23 4]] (REQUEST)
s 0.002700803 _12_ RTR  --- 0 AODV 48 [0 ffffffff 17 800] ------- [12:255 -1:255 29 0] [0x2 2 1 [16 0] [23 4]] (REQUEST)
s 0.002735531 _16_ RTR  --- 0 AODV 48 [0 ffffffff 5 800] ------- [16:255 -1:255 29 0] [0x2 2 1 [34 0] [5 4]] (REQUEST)
r 0.002784508 _39_ RTR  --- 0 AODV 48 [0 ffffffff c 800] ------- [12:255 -1:255 30 0] [0x2 1 1 [27 0] [12 4]] (REQUEST)
r 0.002784514 _13_ RTR  --- 0 AODV 48 [0 ffffffff c 800] ------- [12:255 -1:255 30 0] [0x2 1 1 [27 0] [12 4]] (REQUEST)
r 0.002784531 _14_ RTR  --- 0 AODV 48 [0 ffffffff c 800] ------- [12:255 -1:255 30 0] [0x2 1 1 [27 0] [12 4]] (REQUEST)
r 0.002784536 _17_ RTR  --- 0 AODV 48 [0 ffffffff c 800] ------- [12:255 -1:255 30 0] [0x2 1 1 [27 0] [12 4]] (REQUEST)
r 0.002784547 _24_ RTR  --- 0 AODV 48 [0 ffffffff c 800] ------- [12:255 -1:255 30 0] [0x2 1 1 [27 0] [12 4]] (REQUEST)
r 0.002784557 _22_ RTR  --- 0 AODV 48 [0 ffffffff 1 800] ------- [1:255 -1:255 30 0] [0x2 1 1 [38 0] [1 4]] (REQUEST)
r 0.002784573 _34_ RTR  --- 0 AODV 48 [0 ffffffff 1 800] ------- [1:255 -1:255 30 0] [0x2 1 1 [38 0] [1 4]] (REQUEST)
r 0.002784576 _33_ RTR  --- 0 AODV 48 [0 ffffffff 1 800] ------- [1:255 -1:255 30 0] [0x2 1 1 [38 0] [1 4]] (REQUEST)
r 0.002784651 _11_ RTR  --- 0 AODV 48 [0 ffffffff 1f 800] ------- [31:255 -1:255 30 0] [0x2 1 1 [8 0] [31 4]] (REQUEST)
r 0.002784683 _18_ RTR  --- 0 AODV 48 [0 ffffffff 1f 800] ------- [31:255 -1:255 30 0] [0x2 1 1 [8 0] [31 4]] (REQUEST)
r 0.002784686 _5_ RTR  --- 0 AODV 48 [0 ffffffff 1f 800] ------- [31:255 -1:255 30 0] [0x2 1 1 [8 0] [31 4]] (REQUEST)
r 0.002784689 _19_ RTR  --- 0 AODV 48 [0 ffffffff 1f 800] ------- [31:255 -1:255 30 0] [0x2 1 1 [8 0] [31 4]] (REQUEST)
s 0.002810355 _6_ RTR  --- 0 AODV 48 [0 ffffffff 5 800] ------- [6:255 -1:255 29 0] [0x2 2 1 [34 0] [5 4]] (REQUEST)
s 0.003015578 _2_ RTR  --- 0 AODV 48 [0 ffffffff 5 800] ------- [2:255 -1:255 29 0] [0x2 2 1 [34 0] [5 4]] (REQUEST)
s 0.003058418 _18_ RTR  --- 0 AODV 48 [0 ffffffff 17 800] ------- [18:255 -1:255 29 0] [0x2 2 1 [16 0] [23 4]] (REQUEST)
s 0.003179721 _5_ RTR  --- 0 AODV 48 [0 ffffffff 1f 800] ------- [5:255 -1:255 29 0] [0x2 2 1 [8 0] [31 4]] (REQUEST)
s 0.003366353 _24_ RTR  --- 0 AODV 48 [0 ffffffff 17 800] ------- [24:255 -1:255 29 0] [0x2 2 1 [16 0] [23 4]] (REQUEST)
s 0.003429467 _33_ RTR  --- 0 AODV 48 [0 ffffffff 1 800] ------- [33:255 -1:255 29 0] [0x2 2 1 [38 0] [1 4]] (REQUEST)
s 0.003518046 _26_ RTR  --- 0 AODV 48 [0 ffffffff 5 800] ------- [26:255 -1:255 29 0] [0x2 2 1 [34 0] [5 4]] (REQUEST)
s 0.003566407 _1_ RTR  --- 0 AODV 48 [0 ffffffff 5 800] ------- [1:255 -1:255 29 0] [0x2 2 1 [34 0] [5 4]] (REQUEST)
s 0.003578725 _4_ RTR  --- 0 AODV 48 [0 ffffffff 17 800] ------- [4:255 -1:255 29 0] [0x2 2 1 [16 0] [23 4]] (REQUEST)
s 0.003942763 _15_ RTR  --- 0 AODV 48 [0 ffffffff 17 800] ------- [15:255 -1:255 29 0] [0x2 2 1 [16 0] [23 4]] (REQUEST)
s 0.004008207 _19_ RTR  --- 0 AODV 48 [0 ffffffff 17 800] ------- [19:255 -1:255 29 0] [0x2 2 1 [16 0] [23 4]] (REQUEST)
r 0.004066752 _11_ RTR  --- 0 AODV 48 [0 ffffffff 1f 800] ------- [31:255 -1:255 29 0] [0x2 2 1 [34 0] [5 4]] (REQUEST)
r 0.004066759 _21_ RTR  --- 0 AODV 48 [0 ffffffff 1f 800] ------- [31:255 -1:255 29 0] [0x2 2 1 [34 0] [5 4]] (REQUEST)
r 0.004066785 _18_ RTR  --- 0 AODV 48 [0 ffffffff 1f 800] ------- [31:255 -1:255 29 0] [0x2 2 1 [34 0] [5 4]] (REQUEST)
r 0.004066786 _37_ RTR  --- 0 AODV 48 [0 ffffffff 1f 800] ------- [31:255 -1:255 29 0] [0x2 2 1 [34 0] [5 4]] (REQUEST)
r 0.004066787 _5_ RTR  --- 0 AODV 48 [0 ffffffff 1f 800] ------- [31:255 -1:255 29 0] [0x2 2 1 [34 0] [5 4]] (REQUEST)
r 0.004066788 _7_ RTR  --- 0 AODV 48 [0 ffffffff 1f 800] ------- [31:255 -1:255 29 0] [0x2 2 1 [34 0] [5 4]] (REQUEST)
r 0.004066790 _19_ RTR  --- 0 AODV 48 [0 ffffffff 1f 800] ------- [31:255 -1:255 29 0] [0x2 2 1 [34 0] [5 4]] (REQUEST)
r 0.004066806 _15_ RTR  --- 0 AODV 48 [0 ffffffff 1f 800] ------- [31:255 -1:255 29 0] [0x2 2 1 [34 0] [5 4]] (REQUEST)
r 0.004066836 _26_ RTR  --- 0 AODV 48 [0 ffffffff 1f 800] ------- [31:255 -1:255 29 0] [0x2 2 1 [34 0] [5 4]] (REQUEST)
r 0.004066846 _36_ RTR  --- 0 AODV 48 [0 ffffffff 1f 800] ------- [31:255 -1:255 29 0] [0x2 2 1 [34 0] [5 4]] (REQUEST)
r 0.004066855 _22_ RTR  --- 0 AODV 48 [0 ffffffff 1f 800] ------- [31:255 -1:255 29 0] [0x2 2 1 [34 0] [5 4]] (REQUEST)
r 0.004066857 _1_ RTR  --- 0 AODV 48 [0 ffffffff 1f 800] ------- [31:255 -1:255 29 0] [0x2 2 1 [34 0] [5 4]] (REQUEST)
r 0.004066864 _29_ RTR  --- 0 AODV 48 [0 ffffffff 1f 800] ------- [31:255 -1:255 29 0] [0x2 2 1 [34 0] [5 4]] (REQUEST)
r 0.004066879 _34_ RTR  --- 0 AODV 48 [0 ffffffff 1f 800] ------- [31:255 -1:255 29 0] [0x2 2 1 [34 0] [5 4]] (REQUEST)
r 0.004066881 _3_ RTR  --- 0 AODV 48 [0 ffffffff 1f 800] ------- [31:255 -1:255 29 0] [0x2 2 1 [34 0] [5 4]] (REQUEST)
r 0.004066883 _33_ RTR  --- 0 AODV 48 [0 ffffffff 1f 800] ------- [31:255 -1:255 29 0] [0x2 2 1 [34 0] [5 4]] (REQUEST)
r 0.004066907 _6_ RTR  --- 0 AODV 48 [0 ffffffff 1f 800] ------- [31:255 -1:255 29 0] [0x2 2 1 [34 0] [5 4]] (REQUEST)
r 0.004066920 _8_ RTR  --- 0 AODV 48 [0 ffffffff 1f 800] ------- [31:255 -1:255 29 0] [0x2 2 1 [34 0] [5 4]] (REQUEST)
r 0.004066921 _4_ RTR  --- 0 AODV 48 [0 ffffffff 1f 800] ------- [31:255 -1:255 29 0] [0x2 2 1 [34 0] [5 4]] (REQUEST)
r 0.004066925 _28_ RTR  --- 0 AODV 48 [0 ffffffff 1f 800] ------- [31:255 -1:255 29 0] [0x2 2 1 [34 0] [5 4]] (REQUEST)
r 0.004066928 _0_ RTR  --- 0 AODV 48 [0 ffffffff 1f 800] ------- [31:255 -1:255 29 0] [0x2 2 1 [34 0] [5 4]] (REQUEST)
r 0.004066929 _2_ RTR  --- 0 AODV 48 [0 ffffffff 1f 800] ------- [31:255 -1:255 29 0] [0x2 2 1 [34 0] [5 4]] (REQUEST)
r 0.004066937 _25_ RTR  --- 0 AODV 48 [0 ffffffff 1f 800] ------- [31:255 -1:255 29 0] [0x2 2 1 [34 0] [5 4]] (REQUEST)
r 0.004066943 _10_ RTR  --- 0 AODV 48 [0 ffffffff 1f 800] ------- [31:255 -1:255 29 0] [0x2 2 1 [34 0] [5 4]] (REQUEST)
r 0.004066948 _14_ RTR  --- 0 AODV 48 [0 ffffffff 1f 800] ------- [31:255 -1:255 29 0] [0x2 2 1 [34 0] [5 4]] (REQUEST)
r 0.004066949 _32_ RTR  --- 0 AODV 48 [0 ffffffff 1f 800] ------- [31:255 -1:255 29 0] [0x2 2 1 [34 0] [5 4]] (REQUEST)
r 0.004066965 _16_ RTR  --- 0 AODV 48 [0 ffffffff 1f 800] ------- [31:255 -1:255 29 0] [0x2 2 1 [34 0] [5 4]] (REQUEST)
r 0.004066966 _20_ RTR  --- 0 AODV 48 [0 ffffffff 1f 800] ------- [31:255 -1:255 29 0] [0x2 2 1 [34 0] [5 4]] (REQUEST)
r 0.004066966 _38_ RTR  --- 0 AODV 48 [0 ffffffff 1f 800] ------- [31:255 -1:255 29 0] [0x2 2 1 [34 0] [5 4]] (REQUEST)
r 0.004066970 _30_ RTR  --- 0 AODV 48 [0 ffffffff 1f 800] ------- [31:255 -1:255 29 0] [0x2 2 1 [34 0] [5 4]] (REQUEST)
r 0.004066972 _27_ RTR  --- 0 AODV 48 [0 ffffffff 1f 800] ------- [31:255 -1:255 29 0] [0x2 2 1 [34 0] [5 4]] (REQUEST)
r 0.004066972 _13_ RTR  --- 0 AODV 48 [0 ffffffff 1f 800] ------- [31:255 -1:255 29 0] [0x2 2 1 [34 0] [5 4]] (REQUEST)
r 0.004066974 _12_ RTR  --- 0 AODV 48 [0 ffffffff 1f 800] ------- [31:255 -1:255 29 0] [0x2 2 1 [34 0] [5 4]] (REQUEST)
r 0.004066975 _39_ RTR  --- 0 AODV 48 [0 ffffffff 1f 800] ------- [31:255 -1:255 29 0] [0x2 2 1 [34 0] [5 4]] (REQUEST)
r 0.004066984 _35_ RTR  --- 0 AODV 48 [0 ffffffff 1f 800] ------- [31:255 -1:255 29 0] [0x2 2 1 [34 0] [5 4]] (REQUEST)
r 0.004066992 _17_ RTR  --- 0 AODV 48 [0 ffffffff 1f 800] ------- [31:255 -1:255 29 0] [0x2 2 1 [34 0] [5 4]] (REQUEST)
r 0.004067003 _9_ RTR  --- 0 AODV 48 [0 ffffffff 1f 800] ------- [31:255 -1:255 29 0] [0x2 2 1 [34 0] [5 4]] (REQUEST)
r 0.004067003 _24_ RTR  --- 0 AODV 48 [0 ffffffff 1f 800] ------- [31:255 -1:255 29 0] [0x2 2 1 [34 0] [5 4]] (REQUEST)
r 0.004067038 _23_ RTR  --- 0 AODV 48 [0 ffffffff 1f 800] ------- [31:255 -1:255 29 0] [0x2 2 1 [34 0] [5 4]] (REQUEST)